<?xml version="1.0"?>
<VTKFile type="UnstructuredGrid"  version="0.1"  >
<UnstructuredGrid>
<Piece  NumberOfPoints="877" NumberOfCells="2664">
<Points>
<DataArray  type="Float64"  NumberOfComponents="3"  format="ascii">-0.9581490159034729 1.117810010910034 0  -1.248860001564026 0.3096019923686981 0  -1.639252543449402 0.5505220890045166 0  -1.980711936950684 0.857161819934845 0  -2.257110595703125 1.222998261451721 0  -2.449430227279663 1.639355659484863 0  -2.552337646484375 2.086544990539551 0  -2.583816289901733 2.544398546218872 0  -2.56067681312561 3.002895832061768 0  -2.468886375427246 3.452645540237427 0  -2.307216167449951 3.88215970993042 0  -2.074950695037842 4.277216911315918 0  -1.76788341999054 4.617011070251465 0  -1.400136709213257 4.889845848083496 0  -0.9887457489967346 5.09272575378418 0  -0.5447137355804443 5.208341598510742 0  -0.087297223508358 5.245543956756592 0  0.3698845207691193 5.204964160919189 0  0.8131402134895325 5.085115432739258 0  1.232447266578674 4.897865295410156 0  1.60622775554657 4.631213188171387 0  1.924120783805847 4.300417900085449 0  2.166260480880737 3.911056756973267 0  2.311388254165649 3.475618362426758 0  2.389630317687988 3.023459672927856 0  2.399867057800293 2.564858436584473 0  2.338256120681763 2.110571622848511 0  2.211442470550537 1.669914603233337 0  2.012760400772095 1.256984710693359 0  1.755295753479004 0.8769909739494324 0  1.412096261978149 0.5739984512329102 0  1.001060724258423 0.3701833784580231 0  0.5602096915245056 0.2434924691915512 0  0.1068888753652573 0.1700811386108398 0  -0.3511624932289124 0.1406123638153076 0  -0.8081333637237549 0.183278352022171 0  -1.278929829597473 1.434451699256897 0  -1.538716673851013 1.802750110626221 0  -1.732787251472473 2.209143877029419 0  -1.828973650932312 2.648895502090454 0  -1.8021399974823 3.097665309906006 0  -1.662571549415588 3.525355815887451 0  -1.42778205871582 3.909325838088989 0  -1.099331855773926 4.216109752655029 0  -0.6941964626312256 4.410286426544189 0  -0.2530148029327393 4.501251220703125 0  0.1976116895675659 4.501448154449463 0  0.6375909447669983 4.409632682800293 0  1.043147563934326 4.215094566345215 0  1.380225539207458 3.917946100234985 0  1.634638786315918 3.547642707824707 0  1.782278537750244 3.12349009513855 0  1.778357148170471 2.674717426300049 0  1.644136905670166 2.24678373336792 0  1.399940848350525 1.869031429290771 0  1.088090896606445 1.542970061302185 0  0.72261643409729 1.279548764228821 0  0.3156350553035736 1.086277365684509 0  -0.1093093380331993 0.9369827508926392 0  -0.5569049119949341 0.9200369715690613 0  0.4063162803649902 4.51646900177002 -0.4637657105922699  -1.811192154884338 2.873019456863403 -0.3893155455589294  0.8638476729393005 1.46884548664093 -0.3836442232131958  1.617019534111023 3.303738117218018 -0.3765555620193481  -1.405840516090393 1.620704770088196 -0.390152245759964  -0.9317151308059692 4.386120796203613 -0.3805787563323975  -1.562137246131897 3.72771167755127 -0.3889121413230896  -0.3350220620632172 0.9790900349617004 -0.3843376040458679  1.187503218650818 4.039087295532227 -0.3873965740203857  1.440511703491211 2.110610485076904 -0.3766655325889587  -0.530092716217041 4.5336012840271 -0.3754212260246277  -0.7397409677505493 4.497469902038574 -0.7652955055236816  -1.125073432922363 4.2688307762146 -0.7673823833465576  -0.3042152225971222 4.602737426757812 -0.7562687993049622  0.7920058965682983 4.349205493927002 -0.3927811980247498  0.6468245387077332 4.380382061004639 -0.8108519315719604  -0.5195238590240479 4.573263645172119 -1.1492760181427  -0.07086721807718277 4.59603214263916 -1.140192627906799  -0.912544846534729 4.41609001159668 -1.143082976341248  -1.263339161872864 4.134255886077881 -1.175167441368103  -0.7252663373947144 4.502432346343994 -1.53522515296936  -1.425730347633362 3.936298608779907 -0.8052387237548828  -1.522858738899231 3.768866777420044 -1.21104621887207  -1.387379050254822 3.985575437545776 -1.580877542495728  -1.619369745254517 3.602245569229126 -1.617257833480835  -1.503917574882507 3.831020593643188 -1.986624956130981  -1.715428233146667 3.436022996902466 -2.023811101913452  -1.778606295585632 3.183635473251343 -1.657087683677673  -1.844948053359985 3.00741171836853 -2.065451383590698  -1.618807196617126 3.668680191040039 -2.426677227020264  -1.839224457740784 2.740471363067627 -1.703592538833618  -1.860377192497253 2.560711860656738 -2.115299940109253  -1.770317912101746 2.299688816070557 -1.760318875312805  -1.743077397346497 2.130858182907104 -2.176255464553833  -1.867632269859314 2.381979703903198 -2.527844905853271  -1.70641303062439 1.967425942420959 -2.59351372718811  -1.855733394622803 2.203203916549683 -2.976831674575806  -1.509092330932617 1.754134893417358 -2.250386476516724  -1.430926322937012 1.621021270751953 -2.672673225402832  -1.188287377357483 1.450608849525452 -2.334685087203979  -1.348981499671936 4.034134387969971 -2.366975545883179  -1.451210260391235 3.890341758728027 -2.782875537872314  -1.134122967720032 4.204381942749023 -2.724020481109619  -1.234500885009766 4.060738563537598 -3.138197183609009  -0.8605284690856934 4.300167560577393 -3.067708253860474  -1.537327647209167 3.733333349227905 -3.195296287536621  -1.308730959892273 3.892196655273438 -3.548340797424316  -1.593328475952148 3.548185110092163 -3.601143360137939  -1.290427088737488 1.557756662368774 -1.910170555114746  -0.9320107698440552 1.300585150718689 -1.997090935707092  -1.059848546981812 1.371769666671753 -1.571972012519836  -0.6601780652999878 1.184862971305847 -1.658230423927307  -0.5123545527458191 1.163873672485352 -2.082203388214111  -0.2188288122415543 1.169610857963562 -1.741869688034058  -0.07498358190059662 1.228059768676758 -2.163709402084351  0.1963884383440018 1.324015855789185 -1.818383097648621  0.3150361180305481 1.439612030982971 -2.236364841461182  0.5587693452835083 1.581460118293762 -1.88613498210907  0.6364230513572693 1.748288631439209 -2.296393871307373  0.4209001660346985 1.576147437095642 -2.651472568511963  0.6842446327209473 1.937097787857056 -2.701628684997559  0.8580062985420227 2.137221574783325 -2.33845591545105  0.4923761487007141 1.747103214263916 -3.061117172241211  0.6854789257049561 2.151546955108643 -3.096781015396118  0.5133147239685059 1.95174765586853 -3.460882425308228  0.626564621925354 2.38658881187439 -3.475475788116455  0.4579554796218872 2.185831308364868 -3.840702295303345  0.4682287275791168 2.634579658508301 -3.815403699874878  0.5826382040977478 2.831459522247314 -3.427763700485229  0.2949444651603699 2.433807373046875 -4.178422927856445  0.2443676441907883 1.987101435661316 -4.182769298553467  0.06460411101579666 2.236880779266357 -4.510520935058594  -0.04909954220056534 1.803815722465515 -4.469843864440918  -0.2414522767066956 2.057901382446289 -4.786974430084229  -0.4267539381980896 1.665163636207581 -4.670556545257568  -0.3599429130554199 1.162322163581848 -2.505085706710815  -0.6310693621635437 1.929796695709229 -4.97115421295166  -1.341129064559937 3.686367034912109 -3.946723699569702  -1.606502294540405 3.326284646987915 -3.991927623748779  -0.8637894988059998 1.608519792556763 -4.759592056274414  -0.6794677972793579 1.408208250999451 -4.401766777038574  0.366622120141983 3.066681623458862 -3.744176387786865  0.4647682309150696 3.258166074752808 -3.349454879760742  -1.325380086898804 3.441376924514771 -4.323365211486816  -1.120385527610779 1.495900869369507 -4.408006191253662  -1.000689744949341 3.968887567520142 -3.866696357727051  0.05119398608803749 2.683616876602173 -4.461807727813721  -1.079921245574951 1.923774600028992 -4.996317863464355  0.04445516318082809 1.597319722175598 -4.081593990325928  -0.9307851195335388 1.322940826416016 -4.038853645324707  -1.567912578582764 3.064154863357544 -4.355145454406738  -1.241033911705017 3.146959781646729 -4.652506351470947  -0.9386056661605835 3.463905334472656 -4.55145788192749  -1.337478995323181 1.513082265853882 -4.014669418334961  -0.7438281178474426 4.414472579956055 -2.648861885070801  -0.4291274845600128 4.377645492553711 -2.967772722244263  -0.3089954555034637 4.451067924499512 -2.540850400924683  0.6777346730232239 3.021878480911255 -3.031791687011719  0.5479251146316528 3.444177865982056 -2.948744773864746  0.7628849148750305 3.208675384521484 -2.631883382797241  0.6211892366409302 3.626177549362183 -2.54431676864624  0.8449175953865051 3.394385576248169 -2.230860948562622  0.6811351776123047 3.801807641983032 -2.134956359863281  0.925351619720459 3.580185651779175 -1.829606175422668  1.039594054222107 3.152316570281982 -1.906089305877686  0.2129437029361725 3.478455543518066 -3.649713277816772  -1.782379627227783 2.91252613067627 -3.990256309509277  1.138132095336914 3.344173431396484 -1.511831045150757  1.194554567337036 2.901752471923828 -1.566763281822205  0.06738568097352982 1.224082112312317 -1.399425864219666  -1.704603552818298 2.63625693321228 -4.33632230758667  -1.924461245536804 2.649044513702393 -2.895932912826538  -1.789112687110901 2.472809791564941 -1.345630288124084  -1.139906644821167 1.356758952140808 -3.642287254333496  -0.7107929587364197 1.223695635795593 -3.659518480300903  -1.846919059753418 2.470041036605835 -3.943566560745239  -0.5050927400588989 2.361017465591431 -4.988836765289307  -1.081292271614075 1.35222327709198 -2.760150671005249  0.7307711839675903 3.970573663711548 -1.721402764320374  -0.8105778098106384 1.208731532096863 -1.235268592834473  0.4435355365276337 4.1619553565979 -2.009219646453857  0.3603190779685974 3.838574886322021 -2.842442750930786  -1.643416047096252 2.05176830291748 -1.407160520553589  -1.702324509620667 2.210728883743286 -0.9905695915222168  -1.504805684089661 1.617508769035339 -3.610639333724976  1.324994087219238 3.099174022674561 -1.184748888015747  1.309427261352539 2.65093469619751 -1.212077021598816  1.147531151771545 2.455135583877563 -1.582732081413269  1.187944293022156 2.218364477157593 -1.202909350395203  0.1837199181318283 1.425487279891
[...]
<CellData  Scalars="f">
<DataArray  type="Float64"  Name="f"  format="ascii">2 9 14 3 4 5 12 15 2 4 1 5 8 5 14 14 3 14 6 6 15 11 7 16 6 6 5 6 7 6 10 9 10 10 3 3 14 7 14 5 5 2 14 7 4 12 6 5 4 3 12 1 6 14 3 3 4 3 1 1 3 3 4 1 5 1 1 2 2 1 5 5 1 8 8 7 5 7 14 12 9 15 8 4 7 4 9 4 9 8 3 11 10 4 8 8 2 8 14 15 12 10 3 5 15 15 3 5 2 1 15 6 15 5 7 7 4 4 2 1 15 10 4 10 15 15 15 9 2 15 8 14 2 10 1 13 7 1 13 8 8 9 5 8 12 3 10 11 13 9 12 7 12 14 14 15 13 1 14 6 14 4 1 5 15 9 15 14 11 3 2 2 15 15 1 2 7 6 5 14 1 8 15 8 7 2 9 9 3 3 3 3 3 9 10 5 8 2 2 3 3 6 8 7 5 1 1 7 8 7 11 14 6 11 5 13 5 4 6 12 4 14 3 1 14 4 14 3 11 3 8 6 7 10 2 2 7 9 4 3 4 8 9 6 8 5 10 7 16 5 6 6 11 2 8 14 6 6 6 3 16 1 7 6 8 13 8 9 2 2 6 6 4 15 3 16 4 9 4 7 1 10 1 1 7 1 16 17 11 16 7 16 1 6 5 14 2 2 1 1 9 9 10 3 9 9 10 10 1 1 7 3 3 1 10 1 2 13 8 6 2 6 4 6 14 2 7 4 3 7 9 2 7 10 15 9 3 4 9 8 7 7 7 7 4 7 2 15 7 7 9 14 11 15 3 11 15 5 14 16 13 14 3 14 8 11 14 2 14 4 10 10 4 10 10 8 8 14 8 14 10 6 4 8 4 9 11 13 10 9 10 12 12 3 2 9 13 8 6 6 8 16 10 7 10 12 13 10 14 3 13 7 9 14 7 6 6 15 4 4 6 6 6 14 14 5 16 14 6 14 2 15 15 13 2 1 3 11 5 14 10 15 13 8 8 7 14 9 10 10 3 5 6 4 4 14 8 12 5 6 3 3 7 2 12 1 2 12 13 2 7 6 6 8 4 8 4 4 10 4 3 3 4 12 10 13 10 16 9 3 7 15 5 3 11 5 6 5 14 14 1 4 10 14 14 13 6 7 2 2 14 3 10 3 12 13 14 4 12 15 1 4 11 7 7 5 6 8 8 14 9 10 9 4 14 7 9 11 4 6 12 10 5 6 11 4 16 8 2 2 2 12 4 4 15 15 6 15 16 6 12 9 3 8 16 9 10 14 16 10 11 3 7 8 7 4 8 9 3 4 5 3 5 6 6 10 5 15 14 5 4 6 6 5 5 7 13 14 4 5 6 2 8 7 4 4 11 8 3 8 2 4 9 14 8 11 11 2 3 9 2 3 2 4 16 2 11 2 1 6 6 2 10 3 2 4 15 2 3 2 3 12 4 3 10 5 4 1 7 1 4 4 7 3 2 4 4 3 4 2 2 6 3 3 9 1 7 13 4 8 1 4 9 14 3 13 8 4 8 8 14 11 9 14 9 5 10 7 7 9 1 1 7 1 13 12 14 1 14 14 14 16 15 2 7 2 4 14 2 6 6 6 11 6 11 6 10 6 1 13 4 8 3 11 13 9 13 13 13 13 7 1 1 10 5 8 7 7 7 7 6 6 7 12 2 9 11 9 12 1 11 15 14 12 11 5 6 12 9 15 3 11 1 10 11 3 1 1 9 6 11 15 1 12 14 7 3 5 4 6 8 1 8 1 13 3 14 3 14 14 8 14 8 9 14 2 1 12 7 3 4 12 16 8 8 8 4 10 15 8 10 10 8 7 8 15 16 14 14 15 11 11 8 8 3 9 9 3 7 7 1 15 15 8 8 10 5 1 16 2 1 14 4 6 4 14 4 14 14 10 14 14 13 14 8 14 7 7 13 13 13 14 8 14 16 14 7 8 8 5 14 8 7 16 8 6 11 2 7 13 13 6 5 14 11 14 14 14 14 9 8 8 3 3 10 8 5 6 9 6 9 9 15 8 8 1 2 8 2 3 15 3 9 10 5 11 10 9 10 9 2 12 7 1 1 2 1 15 4 15 7 15 14 11 10 15 15 14 15 13 13 15 14 14 17 15 5 13 10 9 11 15 10 11 10 6 10 15 15 15 15 15 16 15 10 6 6 5 5 5 16 11 16 14 14 16 11 7 11 5 10 10 14 15 5 10 11 5 15 12 13 6 11 6 5 5 5 4 2 3 2 2 15 9 6 9 6 8 5 15 16 4 13 4 3 10 10 3 4 12 8 8 2 2 2 11 4 2 14 14 12 16 9 9 14 11 14 5 16 16 13 12 5 7 4 4 7 9 15 14 10 15 15 14 14 15 15 14 14 7 6 13 13 7 14 8 14 14 14 5 9 14 12 9 7 12 13 3 11 11 7 5 4 2 3 4 14 9 9 5 3 12 12 4 4 6 2 6 14 3 2 16 12 1 2 2 13 2 14 12 12 14 14 15 10 15 15 12 12 2 7 10 8 15 14 6 8 7 7 6 8 8 7 8 8 12 12 6 2 2 13 2 4 3 3 4 1 1 12 3 13 13 13 2 6 6 13 3 8 9 4 3 9 2 4 15 1 1 6 16 12 1 4 11 7 7 1 12 7 1 6 7 8 12 12 3 2 13 13 13 14 14 9 10 9 15 13 3 9 16 9 13 7 14 9 4 4 9 10 3 3 2 7 3 13 6 1 13 9 3 9 9 9 13 1 6 1 2 8 8 15 16 16 9 2 16 2 2 1 4 15 10 11 16 11 11 4 4 16 14 10 3 9 9 14 9 9 16 13 11 11 11 13 7 14 9 6 14 16 15 14 2 10 10 9 4 5 2 5 11 11 5 13 14 15 3 2 8 8 12 1 6 10 6 6 2 6 15 5 6 12 6 13 5 2 2 1 14 14 14 3 4 10 6 5 3 8 2 3 5 5 3 3 4 3 5 9 2 2 2 15 5 15 3 4 2 2 2 6 2 6 6 6 2 3 12 12 6 11 2 11 2 6 11 6 12 1 12 11 1 8 14 12 12 7 11 12 7 4 10 1 10 10 1 4 17 15 17 2 8 14 14 2 15 13 8 12 1 5 6 6 12 6 12 8 1 1 7 6 7 6 2 10 15 1 12 4 9 13 4 9 9 15 9 15 4 11 3 4 3 2 2 3 10 9 3 4 1 8 8 12 13 7 8 13 12 7 10 10 15 3 3 14 1 3 14 2 1 14 2 15 14 14 15 1 2 15 4 14 7 7 7 13 11 8 4 4 11 3 4 11 7 15 2 1 1 15 1 15 15 7 15 4 6 5 8 6 8 14 14 10 10 6 14 13 11 4 9 3 4 7 7 7 7 1 2 6 5 12 10 4 4 10 4 10 5 10 10 9 3 4 4 4 4 4 10 4 5 5 12 12 6 8 12 6 2 2 14 14 14 8 4 7 8 7 15 9 15 2 5 6 2 5 15 2 14 4 9 5 5 1 3 1 9 3 3 3 1 1 1 1 1 1 1 1 1 5 5 2 9 9 9 1 7 1 7 1 9 3 8 3 8 8 3 7 7 7 15 6 15 6 5 13 8 13 8 14 13 8 7 12 13 14 14 14 3 3 3 13 11 5 4 11 15 1 3 3 1 3 3 4 2 5 7 2 9 6 1 7 9 6 14 3 6 6 6 6 6 14 1 6 6 12 16 1 12 9 3 9 9 9 14 13 14 14 8 8 13 2 9 1 9 2 1 4 14 9 15 15 10 15 15 14 13 14 14 6 14 4 11 11 10 9 4 10 15 4 8 9 4 4 1 13 15 16 14 12 15 8 1 1 9 11 11 5 9 9 16 9 8 8 8 13 13 13 13 4 1 4 4 4 5 1 12 12 1 1 1 1 10 10 14 14 14 14 1 1 1 1 4 3 3 3 4 3 3 3 14 11 12 12 12 2 2 2 2 4 4 7 7 9 9 9 3 3 11 11 11 11 11 14 14 11 11 11 15 15 5 5 5 5 12 12 6 12 11 12 12 12 12 12 12 1 1 9 9 3 3 5 5 5 5 1 1 2 2 5 5 2 5 10 10 10 10 6 6 6 6 7 13 7 7 7 7 7 5 5 5 5 4 4 12 12 12 12 5 5 5 5 1 6 5 5 12 12 12 12 7 7 15 15 15 15 11 11 11 11 3 10 10 10 10 10 10 3 3 3 10 10 10 7 7 7 7 4 4 4 4 5 14 14 12 6 7 1 8 8 8 8 10 10 13 16 11 11 11 12 12 12 12 8 8 8 9 9 9 13 13 13 13 6 6 16 16 16 16 6 6 15 15 10 10 16 12 14 14 10 15 15 9 9 3 3 6 8 8 8 8 7 7 7 7 6 6 10 10 10 10 5 5 15 15 15 15 15 15 5 4 4 4 3 3 3 3 3 2 2 13 13 7 7 7 11 15 15 15 5 5 5 5 2 2 2 2 14 13 16 16 16 16 16 5 1 1 1 1 9 9 1 1 1 1 4 3 5 3 3 3 15 15 4 4 12 12 12 6 6 12 5 5 5 5 11 5 11 14 14 14 14 14 14 1 4 4 4 4 4 4 4 10 10 6 6 6 6 16 16 16 16 13 13 13 13 9 9 8 8 8 8 4 4 4 4 16 16 12 16 14 14 3 3 13 13 13 13 13 3 3 2 5 2 2 2 2 2 2 2 2 2 2 14 14 14 14 8 8 8 8 1 1 6 6 6 6 15 15 15 15 15 15 13 14 14 14 15 15 15 15 7 7 7 7 14 14 14 3 3 3 13 13 13 16 16 10 10 10 10 16 16 16 6 6 6 6 11 16 11 11 15 15 15 15 9 9 9 9 1 1 2 1 10 10 10 10 14 14 5 5 5 5 1 1 1 1 9 9 9 9 9 15 15 15 15 5 11 11 5 4 6 6 6 11 11 11 11 14 14 14 3 3 3 3 1 1 13 13 16 14 14 5 5 5 13 13 13 13 10 10 10 10 5 5 5 5 9 9 9 9 1 1 1 1 1 9 9 9 9 13 13 14 14 9 9 8 8 8 8 2 2 4 4 4 5 5 5 11 11 11 11 15 15 15 15 15 10 10 6 5 5 5 11 11 11 11 16 13 4 4 5 5 5 5 5 5 16 16 6 6 4 6 10 15 15 15 3 3 5 4 3 3 7 7 7 13 13 13 13 15 15 14 15 3 3 3 3 13 13 13 13 16 16 16 16 9 9 9 9 14 14 14 5 5 6 4 1 1 1 5 5 5 6 14 14 15 15 15 15 6 6 7 7 7 7 1 1 1 5 5 3 3 3 5 3 1 1 1 4 3 3 3 4 3 3 3 3 3 3 3 3 5 5 5 5 5 6 6 6 6 6 1 1 1 1 1 6 6 6 6 6 1 1 1 1 1 1 4 4 4 4 4 6 4 4 4 4 4 4 4 4 4 4 4 4 5 5 5 4 5 5 5 5 5 6 3 6 4 6 2 2 2 6 6 6 6 6 5 5 5 5 5 2 2 2 3 2 2 3 3 3 3 3 5 5 2 2 1 2 2 2 3 3 3 1 2 6 6 6 6 6 5 1 1 1 1 1 5 5 5 5 5 5 5 5 4 2 2 1 1 4 1 1 4 4 5 4 5 5 1 1 2 1 1 3 4 3 3 5 5 3 4 3 4 4 4 4 5 3 5 4 6 6 6 6 1 2 2 2 2 2 6 6 6 6 6 6 4 6 4 4 3 3 2 2 2 2 2 2 5 4 4 4 5 5 6 5 6 5 4 1 1 1 1 1 1 1 5 5 3 3 5 3 1 1 1 3 1 3 1 6 6 6 3 3 2 3 2 3 3 6 3 3 3 3 3 3 4 5 3 3 4 3 4 3 4 4 4 2 3 2 2 5 5 1 1 5 3 4 4 4 4 4 2 6 6 6 3 2 2 2 2 2 2 2 2 2 2 3 3 4 3 4 4 4 4 </DataArray>
</CellData>
</Piece>
</UnstructuredGrid>
</VTKFile>